112
Lattice="10.2874002457 0.0 0.0 0.0 10.2874002457 0.0 0.0 0.0 28.9113998413" Properties=species:S:1:pos:R:3:forces:R:3 energy=-360615.1225723368 free_energy=-360615.1225723368 pbc="T T T"
Fe       0.00999997       0.00999997       0.00999987      -0.00000046      -0.00000044       0.18259007
Fe       0.01000022       0.01000008       3.67169557      -0.00000319      -0.00000070      -0.04112865
Fe       0.01000187       0.01000206       7.30941269      -0.00007686      -0.00008107      -0.03324558
Fe       0.01001623       0.01001624      10.91557518      -0.00002986      -0.00002955      -0.02539695
Fe       1.29592502       1.29592502       1.82852687       0.00000107       0.00000085      -0.10714902
Fe       1.29592269       1.29592262       5.49218130       0.00001894       0.00001917      -0.00609566
Fe       1.29591870       1.29591868       9.13635268       0.00015666       0.00015683       0.01398849
Fe       2.58185005       0.00999997       0.00999987      -0.00000049      -0.00000042       0.18258906
Fe       2.58185069       0.01000009       3.67169562      -0.00000413       0.00000375      -0.04112746
Fe       2.58184210       0.00999201       7.30941279       0.00009462       0.00009399      -0.03324750
Fe       2.58186529       0.01001492      10.91557509       0.00002270       0.00002190      -0.02539529
Fe       3.86777508       1.29592502       1.82852687       0.00000079       0.00000074      -0.10563031
Fe       3.86777397       1.29592375       5.49001114      -0.00002327      -0.00002113       0.01028666
Fe       3.86779098       1.29594099       9.13424785      -0.00015935      -0.00015956       0.02896125
Fe       5.15369982       0.00999997       0.00999987       0.00000007      -0.00000044       0.18258861
Fe       5.15370038       0.01000010       3.67169580      -0.00000363      -0.00000098      -0.04112835
Fe       5.15370200       0.01000210       7.30941295      -0.00007685      -0.00008180      -0.03324820
Fe       5.15371610       0.01001616      10.91557509      -0.00002954      -0.00002941      -0.02539495
Fe       6.43962485       1.29592502       1.82852687       0.00000250       0.00000092      -0.10714873
Fe       6.43962277       1.29592274       5.49218140       0.00002010       0.00001732      -0.00609448
Fe       6.43961851       1.29591858       9.13635276       0.00015896       0.00015816       0.01398780
Fe       7.72554988       0.00999997       0.00999987       0.00000003      -0.00000043       0.18258958
Fe       7.72555066       0.01000008       3.67169565      -0.00000371       0.00000404      -0.04112753
Fe       7.72554249       0.00999202       7.30941290       0.00009194       0.00009409      -0.03324876
Fe       7.72556519       0.01001494      10.91557500       0.00002346       0.00002174      -0.02539515
Fe       9.01147491       1.29592502       1.82852687       0.00000232       0.00000070      -0.10563134
Fe       9.01147413       1.29592361       5.49001108      -0.00002345      -0.00001904       0.01028555
Fe       9.01149107       1.29594091       9.13424767      -0.00015813      -0.00015916       0.02896372
Fe       0.00999997       2.58185005       0.00999987      -0.00000047      -0.00000049       0.18258904
Fe       0.01000031       2.58185076       3.67169557       0.00000018      -0.00000656      -0.04112668
Fe       0.00999196       2.58184191       7.30941280       0.00009644       0.00009808      -0.03324773
Fe       0.01001492       2.58186536      10.91557516       0.00002180       0.00002296      -0.02539593
Fe       1.29592502       3.86777508       1.82852687       0.00000075       0.00000079      -0.10563156
Fe       1.29592388       3.86777391       5.49001097      -0.00002240      -0.00002295       0.01028994
Fe       1.29594104       3.86779095       9.13424790      -0.00016023      -0.00015892       0.02895978
Fe       2.58185005       2.58185005       0.00999987      -0.00000050      -0.00000051       0.18258801
Fe       2.58185060       2.58185077       3.67169572      -0.00000795      -0.00001150      -0.04112725
Fe       2.58185191       2.58185181       7.30941282      -0.00007764      -0.00007557      -0.03324798
Fe       2.58186615       2.58186613      10.91557521      -0.00003089      -0.00003098      -0.02539401
Fe       3.86777508       3.86777508       1.82852687       0.00000124       0.00000104      -0.10715021
Fe       3.86777286       3.86777286       5.49218118       0.00001703       0.00001632      -0.00608834
Fe       3.86776858       3.86776858       9.13635278       0.00015850       0.00015843       0.01398380
Fe       5.15369982       2.58185005       0.00999987       0.00000005      -0.00000049       0.18258760
Fe       5.15370035       2.58185071       3.67169586       0.00000104      -0.00000592      -0.04112809
Fe       5.15369230       2.58184178       7.30941283       0.00009392       0.00010001      -0.03324674
Fe       5.15371469       2.58186551      10.91557523       0.00002279       0.00002257      -0.02539421
Fe       6.43962485       3.86777508       1.82852687       0.00000211       0.00000082      -0.10563089
Fe       6.43962391       3.86777389       5.49001111      -0.00002054      -0.00002255       0.01028982
Fe       6.43964100       3.86779100       9.13424797      -0.00015939      -0.00015961       0.02895928
Fe       7.72554988       2.58185005       0.00999987       0.00000002      -0.00000050       0.18258856
Fe       7.72555056       2.58185073       3.67169572      -0.00000719      -0.00001097      -0.04112674
Fe       7.72555233       2.58185198       7.30941292      -0.00008082      -0.00007821      -0.03324872
Fe       7.72556581       2.58186586      10.91557514      -0.00002960      -0.00003048      -0.02539526
Fe       9.01147491       3.86777508       1.82852687       0.00000259       0.00000094      -0.10715143
Fe       9.01147292       3.86777288       5.49218117       0.00001811       0.00001595      -0.00609055
Fe       9.01146864       3.86776859       9.13635253       0.00015929       0.00015766       0.01398931
Fe       0.00999997       5.15369982       0.00999987      -0.00000046       0.00000010       0.18258857
Fe       0.01000024       5.15370019       3.67169575      -0.00000349      -0.00000083      -0.04112787
Fe       0.01000191       5.15370224       7.30941294      -0.00007759      -0.00008165      -0.03324816
Fe       0.01001612       5.15371611      10.91557515      -0.00002973      -0.00002934      -0.02539537
Fe       1.29592502       6.43962485       1.82852687       0.00000107       0.00000241      -0.10714881
Fe       1.29592270       6.43962275       5.49218145       0.00001873       0.00001979      -0.00609554
Fe       1.29591855       6.43961852       9.13635271       0.00015932       0.00015867       0.01398862
Fe       2.58185005       5.15369982       0.00999987      -0.00000049       0.00000010       0.18258759
Fe       2.58185063       5.15370014       3.67169582      -0.00000348       0.00000478      -0.04112759
Fe       2.58184197       5.15369239       7.30941280       0.00009653       0.00009144      -0.03324633
Fe       2.58186543       5.15371462      10.91557527       0.00002231       0.00002296      -0.02539476
Fe       3.86777508       6.43962485       1.82852687       0.00000090       0.00000222      -0.10562973
Fe       3.86777405       6.43962383       5.49001134      -0.00002449      -0.00001988       0.01028545
Fe       3.86779117       6.43964099       9.13424789      -0.00016126      -0.00015922       0.02896157
Fe       5.15369982       5.15369982       0.00999987       0.00000007       0.00000009       0.18258719
Fe       5.15370038       5.15370020       3.67169605      -0.00000366      -0.00000087      -0.04112924
Fe       5.15370218       5.15370242       7.30941279      -0.00007943      -0.00008423      -0.03324566
Fe       5.15371594       5.15371595      10.91557518      -0.00002908      -0.00002886      -0.02539375
Fe       6.43962485       6.43962485       1.82852687       0.00000238       0.00000237      -0.10714840
Fe       6.43962268       6.43962277       5.49218152       0.00002146       0.00001940      -0.00609456
Fe       6.43961844       6.43961847       9.13635280       0.00016067       0.00015913       0.01398757
Fe       7.72554988       5.15369982       0.00999987       0.00000003       0.00000010       0.18258809
Fe       7.72555069       5.15370022       3.67169583      -0.00000403       0.00000371      -0.04112731
Fe       7.72554239       5.15369214       7.30941295       0.00009335       0.00009485      -0.03324809
Fe       7.72556530       5.15371473      10.91557515       0.00002325       0.00002238      -0.02539528
Fe       9.01147491       6.43962485       1.82852687       0.00000234       0.00000234      -0.10563111
Fe       9.01147412       6.43962384       5.49001113      -0.00002334      -0.00001988       0.01028658
Fe       9.01149123       6.43964099       9.13424771      -0.00016049      -0.00015895       0.02896363
Fe       0.00999997       7.72554988       0.00999987      -0.00000048       0.00000001       0.18258956
Fe       0.01000029       7.72555075       3.67169560       0.00000051      -0.00000626      -0.04112703
Fe       0.00999194       7.72554221       7.30941287       0.00009681       0.00009697      -0.03324835
Fe       0.01001513       7.72556529      10.91557503       0.00002187       0.00002354      -0.02539569
Fe       1.29592502       9.01147491       1.82852687       0.00000069       0.00000252      -0.10563247
Fe       1.29592375       9.01147407       5.49001088      -0.00002047      -0.00002341       0.01028933
Fe       1.29594104       9.01149107       9.13424777      -0.00016046      -0.00015827       0.02896141
Fe       2.58185005       7.72554988       0.00999987      -0.00000050       0.00000000       0.18258854
Fe       2.58185057       7.72555076       3.67169569      -0.00000746      -0.00001132      -0.04112637
Fe       2.58185210       7.72555213       7.30941291      -0.00008029      -0.00007778      -0.03324853
Fe       2.58186605       7.72556587      10.91557510      -0.00003013      -0.00003030      -0.02539534
Fe       3.86777508       9.01147491       1.82852687       0.00000117       0.00000259      -0.10715132
Fe       3.86777286       9.01147293       5.49218114       0.00001685       0.00001718      -0.00609007
Fe       3.86776860       9.01146866       9.13635259       0.00015844       0.00015870       0.01398844
Fe       5.15369982       7.72554988       0.00999987       0.00000005       0.00000001       0.18258812
Fe       5.15370042       7.72555078       3.67169588      -0.00000002      -0.00000658      -0.04112810
Fe       5.15369209       7.72554212       7.30941294       0.00009729       0.00009838      -0.03324786
Fe       5.15371510       7.72556540      10.91557508       0.00002221       0.00002334      -0.02539466
Fe       6.43962485       9.01147491       1.82852687       0.00000220       0.00000246      -0.10563215
Fe       6.43962393       9.01147395       5.49001086      -0.00002060      -0.00002156       0.01029147
Fe       6.43964111       9.01149113       9.13424783      -0.00015979      -0.00015945       0.02896052
Fe       7.72554988       7.72554988       0.00999987       0.00000002       0.00000001       0.18258907
Fe       7.72555054       7.72555074       3.67169571      -0.00000696      -0.00001108      -0.04112666
Fe       7.72555240       7.72555219       7.30941299      -0.00008177      -0.00007873      -0.03324945
Fe       7.72556585       7.72556573      10.91557504      -0.00002931      -0.00003027      -0.02539552
Fe       9.01147491       9.01147491       1.82852687       0.00000263       0.00000260      -0.10715249
Fe       9.01147303       9.01147304       5.49218103       0.00001647       0.00001545      -0.00609067
Fe       9.01146863       9.01146866       9.13635266       0.00016009       0.00015873       0.01398933
113
Lattice="10.2874002457 0.0 0.0 0.0 10.2874002457 0.0 0.0 0.0 28.9113998413" Properties=species:S:1:pos:R:3:forces:R:3 energy=-360770.7097849463 free_energy=-360770.7097849463 pbc="T T T"
Fe       0.00999997       0.00999997       0.00999987      -0.00027923      -0.00098212       0.18434117
Fe       0.01096364       0.00948051       3.66437131      -0.00154792      -0.00143671      -0.02556244
Fe       0.01221175       0.01069594       7.29514354       0.01231013       0.00404198      -0.03736804
Fe       0.00822223      -0.01028895      10.93095015       0.00798536      -0.00894716      -0.02123573
Fe       1.29592502       1.29592502       1.82852687      -0.00000327       0.00445671      -0.12759135
Fe       1.29592387       1.29321724       5.48043077       0.00001569       0.01527364       0.01124720
Fe       1.29592809       1.28514040       9.12812284       0.00004834       0.00409253       0.02273136
Fe       2.58185005       0.00999997       0.00999987       0.00027979      -0.00098217       0.18434015
Fe       2.58088378       0.00948071       3.66437140       0.00155174      -0.00143559      -0.02556248
Fe       2.57964588       0.01069072       7.29514355      -0.01230798       0.00411391      -0.03736765
Fe       2.58366288      -0.01030345      10.93094990      -0.00793595      -0.00897637      -0.02123179
Fe       3.86777508       1.29592502       1.82852687      -0.01124417       0.01123844      -0.13722738
Fe       3.87187996       1.29182079       5.47848786      -0.01593848       0.01591424       0.00234404
Fe       3.85935158       1.30436842       9.10428054       0.00095908      -0.00106685       0.00762200
Fe       5.15369982       0.00999997       0.00999987       0.00002418      -0.00002306       0.17852289
Fe       5.15127526       0.01242179       3.65606560       0.01632908      -0.01632325       0.00336049
Fe       5.15182559       0.01188647       7.29826901       0.00826015      -0.00832714       0.00284765
Fe       5.10495062       0.05878506      10.84932568      -0.00593669       0.00596095      -0.02014989
Fe       6.43962485       1.29592502       1.82852687      -0.00000165       0.01722858      -0.14563664
Fe       6.43962394       1.29084717       5.47976989       0.00001616       0.01370539       0.00169992
Fe       6.43962825       1.32693343       9.10871035       0.00005441      -0.00761700      -0.01484917
Fe       7.72554988       0.00999997       0.00999987      -0.00002258      -0.00002310       0.17852381
Fe       7.72797236       0.01242203       3.65606543      -0.01632571      -0.01632323       0.00336163
Fe       7.72743237       0.01188138       7.29826895      -0.00825934      -0.00826105       0.00284998
Fe       7.77433258       0.05877048      10.84932577       0.00600206       0.00595631      -0.02016307
Fe       9.01147491       1.29592502       1.82852687       0.01124009       0.01123847      -0.13722880
Fe       9.00737080       1.29182050       5.47848790       0.01591457       0.01591580       0.00234135
Fe       9.01991866       1.30436851       9.10427991      -0.00106714      -0.00106687       0.00762669
Fe       0.00999997       2.58185005       0.00999987      -0.00083875      -0.00083875       0.18600274
Fe       0.00994633       2.58179661       3.66613421      -0.00001935      -0.00002144      -0.02720451
Fe       0.01194485       2.58379562       7.29651571       0.01216832       0.01217099      -0.01724457
Fe      -0.03317622       2.53868809      10.88096005       0.02323179       0.02327814      -0.00965238
Fe       1.29592502       3.86777508       1.82852687      -0.00000311      -0.00000311      -0.12373854
Fe       1.29592515       3.86777518       5.48090017      -0.00001156      -0.00001146       0.01813506
Fe       1.29593323       3.86778332       9.14692490      -0.00003505      -0.00003482       0.02217841
Fe       2.58185005       2.58185005       0.00999987       0.00083928      -0.00083874       0.18600169
Fe       2.58190077       2.58179629       3.66613424       0.00002319      -0.00002202      -0.02720419
Fe       2.57990963       2.58379886       7.29651602      -0.01216857       0.01210179      -0.01724023
Fe       2.62502919       2.53867635      10.88096074      -0.02328028       0.02321184      -0.00965703
Fe       3.86777508       3.86777508       1.82852687      -0.00446306      -0.00000327      -0.12759053
Fe       3.87048048       3.86777394       5.48043098      -0.01524453       0.00001511       0.01125191
Fe       3.87856632       3.86777801       9.12812265      -0.00401519       0.00004843       0.02272658
Fe       5.15369982       2.58185005       0.00999987       0.00098320      -0.00027928       0.18433865
Fe       5.15421674       2.58281419       3.66437158       0.00144165      -0.00154974      -0.02556207
Fe       5.15300985       2.58405736       7.29514425      -0.00404468       0.01238210      -0.03737459
Fe       5.17400494       2.58007216      10.93095061       0.00894141       0.00800726      -0.02123202
Fe       6.43962485       3.86777508       1.82852687      -0.00000123      -0.00000276      -0.13308807
Fe       6.43962519       3.86777554       5.48364232      -0.00001163      -0.00001207      -0.01143540
Fe       6.43963456       3.86778650       9.12547260      -0.00004711      -0.00005163       0.00414354
Fe       7.72554988       2.58185005       0.00999987      -0.00098163      -0.00027925       0.18433970
Fe       7.72503073       2.58281386       3.66437148      -0.00143898      -0.00155062      -0.02556194
Fe       7.72624553       2.58406111       7.29514361       0.00403971       0.01230737      -0.03736915
Fe       7.70524729       2.58005878      10.93095072      -0.00899648       0.00793677      -0.02123354
Fe       9.01147491       3.86777508       1.82852687       0.00445829      -0.00000328      -0.12759189
Fe       9.00876745       3.86777396       5.48043085       0.01527362       0.00001503       0.01124852
Fe       9.00069052       3.86777877       9.12812289       0.00409301       0.00005154       0.02273169
Fe       0.00999997       5.15369982       0.00999987      -0.00083872       0.00083985       0.18600223
Fe       0.00994607       5.15375069       3.66613425      -0.00001927       0.00002555      -0.02720409
Fe       0.01194962       5.15176050       7.29651606       0.01210395      -0.01216692      -0.01724037
Fe      -0.03315972       5.19689352      10.88096073       0.02325804      -0.02323380      -0.00965737
Fe       1.29592502       6.43962485       1.82852687      -0.00000321      -0.00446165      -0.12759095
Fe       1.29592390       6.44233051       5.48043099       0.00001567      -0.01524382       0.01124968
Fe       1.29592857       6.45041642       9.12812264       0.00005211      -0.00401524       0.02272761
Fe       2.58185005       5.15369982       0.00999987       0.00083928       0.00083981       0.18600119
Fe       2.58190110       5.15375092       3.66613428       0.00002357       0.00002613      -0.02720364
Fe       2.57990631       5.15175569       7.29651635      -0.01209946      -0.01210282      -0.01723570
Fe       2.62504032       5.19687609      10.88096139      -0.02321462      -0.02326071      -0.00966221
Fe       3.86777508       6.43962485       1.82852687      -0.01124403      -0.01124254      -0.13722668
Fe       3.87187973       6.44372973       5.47848792      -0.01593810      -0.01593674       0.00234557
Fe       3.85935161       6.43120148       9.10428108       0.00095843       0.00095874       0.00761806
Fe       5.15369982       5.15369982       0.00999987       0.00098327       0.00028039       0.18433821
Fe       5.15421653       5.15273334       3.66437172       0.00144054       0.00155350      -0.02556269
Fe       5.15301497       5.15150032       7.29514419      -0.00411625      -0.01238072      -0.03737336
Fe       5.17401861       5.15551317      10.93095038       0.00896976      -0.00795832      -0.02122809
Fe       6.43962485       6.43962485       1.82852687      -0.00000167      -0.01723320      -0.14563621
Fe       6.43962393       6.44470114       5.47976991       0.00001650      -0.01367581       0.00169979
Fe       6.43962831       6.40862769       9.10871026       0.00005096       0.00770164      -0.01484390
Fe       7.72554988       5.15369982       0.00999987      -0.00098166       0.00028033       0.18433925
Fe       7.72503103       5.15273361       3.66437165      -0.00143793       0.00155404      -0.02556249
Fe       7.72624164       5.15149517       7.29514374       0.00411542      -0.01230917      -0.03736746
Fe       7.70526040       5.15549952      10.93094949      -0.00892723      -0.00798400      -0.02123379
Fe       9.01147491       6.43962485       1.82852687       0.01123992      -0.01124264      -0.13722826
Fe       9.00737104       6.44372996       5.47848789       0.01591371      -0.01593755       0.00234378
Fe       9.01991878       6.43120175       9.10428044      -0.00106742       0.00095979       0.00762292
Fe       0.00999997       7.72554988       0.00999987      -0.00027929       0.00098320       0.18434061
Fe       0.01096393       7.72606689       3.66437132      -0.00154763       0.00143953      -0.02556139
Fe       0.01220676       7.72486056       7.29514407       0.01237957      -0.00404220      -0.03737545
Fe       0.00820868       7.74586911      10.93095116       0.00795893       0.00899089      -0.02123048
Fe       1.29592502       9.01147491       1.82852687      -0.00000283      -0.00000105      -0.13308970
Fe       1.29592551       9.01147529       5.48364208      -0.00001167      -0.00001246      -0.01143562
Fe       1.29593653       9.01148461       9.12547250      -0.00005171      -0.00004662       0.00414394
Fe       2.58185005       7.72554988       0.00999987       0.00027983       0.00098321       0.18433960
Fe       2.58088341       7.72606663       3.66437146       0.00155133       0.00143791      -0.02556155
Fe       2.57964959       7.72486440       7.29514424      -0.01238185      -0.00411816      -0.03737363
Fe       2.58364997       7.74585481      10.93094974      -0.00800651       0.00892096      -0.02123043
Fe       3.86777508       9.01147491       1.82852687      -0.01723461      -0.00000163      -0.14563744
Fe       3.87285113       9.01147404       5.47976973      -0.01367646       0.00001525       0.00170087
Fe       3.83677777       9.01147824       9.10871028       0.00770148       0.00005392      -0.01484377
Fe       5.15369982       7.72554988       0.00999987       0.00002414       0.00002413       0.17852250
Fe       5.15127555       7.72312567       3.65606580       0.01632838       0.01632662       0.00335947
Fe       5.15182053       7.72367126       7.29826904       0.00832564       0.00832846       0.00284522
Fe       5.10493638       7.67679772      10.84932559      -0.00594251      -0.00589688      -0.02013739
Fe       6.43962485       9.01147491       1.82852687      -0.00000138      -0.00000130      -0.15335589
Fe       6.43962529       9.01147533       5.46192812      -0.00000885      -0.00000904       0.03666935
Fe       6.43963498       9.01148490       9.06998462      -0.00003509      -0.00003504       0.00891551
Fe       7.72554988       7.72554988       0.00999987      -0.00002258       0.00002413       0.17852340
Fe       7.72797201       7.72312535       3.65606559      -0.01632532       0.01632655       0.00336098
Fe       7.72743608       7.72367504       7.29826895      -0.00833031       0.00825611       0.00284712
Fe       7.77432361       7.67678888      10.84932577       0.00591743      -0.00598363      -0.02015052
Fe       9.01147491       9.01147491       1.82852687       0.01723019      -0.00000156      -0.14563875
Fe       9.00639740       9.01147410       5.47976975       0.01370540       0.00001453       0.00170053
Fe       9.04248368       9.01147842       9.10871019      -0.00761652       0.00005020      -0.01484832
C        6.43963650      -1.27591393      11.17180938      -0.00003176      -0.00002957       0.00326646
113
Lattice="10.2874002457 0.0 0.0 0.0 10.2874002457 0.0 0.0 0.0 28.9113998413" Properties=species:S:1:pos:R:3:forces:R:3 energy=-360772.88169994915 free_energy=-360772.88169994915 pbc="T T T"
Fe       0.00999997       0.00999997       0.00999987       0.00355849       0.00304873       0.15502281
Fe       0.23644746       0.02436046       3.68866135      -0.00488553       0.00621104       0.00564793
Fe       0.34625474       0.03339538       7.39258057       0.00352835      -0.00320113      -0.01167173
Fe       0.43394310       0.08966677      11.08118137      -0.00801422      -0.00292775       0.00915518
Fe       1.29592502       1.29592502       1.82852687       0.00433832      -0.00636259      -0.18664012
Fe       1.29885471       1.29611063       5.53728065      -0.00995635      -0.01204610      -0.00140133
Fe       1.29767525       1.30536062       9.24290813      -0.00102134      -0.00751110       0.00421995
Fe       2.58185005       0.00999997       0.00999987       0.00389963       0.00270464       0.15507987
Fe       2.80201646       0.02190448       3.68928257       0.01279215       0.00946314      -0.00255776
Fe       2.92243750       0.03910413       7.39605433      -0.00155124      -0.00692063       0.00045932
Fe       3.00404838       0.09650131      11.07364603      -0.00256225      -0.01451810      -0.00182429
Fe       3.86777508       1.29592502       1.82852687      -0.00762632      -0.01261436      -0.18077087
Fe       3.86926574       1.29237913       5.53365048      -0.00631388       0.00259558       0.01902012
Fe       3.88016078       1.31368540       9.24481858      -0.00647435      -0.01364809       0.01248859
Fe       5.15369982       0.00999997       0.00999987       0.00449649       0.00307451       0.15579838
Fe       5.37454891       0.02330269       3.68713777       0.00722864      -0.00179240      -0.00454713
Fe       5.48791435       0.03165669       7.38748628       0.00498600      -0.00501359      -0.00396870
Fe       5.59416688       0.10545249      11.07991731      -0.00953525      -0.00668891       0.01026520
Fe       6.43962485       1.29592502       1.82852687      -0.01069924      -0.01335229      -0.18419002
Fe       6.43975770       1.29314278       5.53054304      -0.00775226      -0.00442126      -0.00833347
Fe       6.44424071       1.29851354       9.23255554       0.00495502      -0.00477105      -0.00938894
Fe       7.72554988       0.00999997       0.00999987       0.00437250       0.00280228       0.15383894
Fe       7.95045080       0.02213282       3.68585265      -0.00577554       0.00927099       0.00603137
Fe       8.05485006       0.02472788       7.38092512       0.00580118       0.00126684       0.00162045
Fe       8.15642707       0.10083807      11.09320475      -0.01569378      -0.01257253       0.00770320
Fe       9.01147491       1.29592502       1.82852687       0.00849407      -0.00716752      -0.18154028
Fe       9.01002200       1.29243809       5.53116355       0.01839153       0.00667464      -0.00094872
Fe       9.00825672       1.27850474       9.22752937      -0.01006494       0.00132754      -0.00500151
Fe       0.00999997       2.58185005       0.00999987      -0.00402974      -0.00209240       0.15480385
Fe      -0.20836455       2.56406741       3.68583066      -0.01327571       0.00393904       0.00672301
Fe      -0.32301370       2.55979385       7.37724655      -0.00083548      -0.00968612       0.00655263
Fe      -0.41775913       2.48637496      11.07725367      -0.00558237       0.02687340       0.00074499
Fe       1.29592502       3.86777508       1.82852687      -0.39908411       0.00380809      -0.12834373
Fe       0.81198957       3.86940157       5.54020507      -0.00085109       0.00147791       0.00978815
Fe       0.68822344       3.86946272       9.26452569       0.02498415      -0.00194328      -0.00612433
Fe       2.58185005       2.58185005       0.00999987      -0.00367372      -0.00219198       0.15541806
Fe       2.36092222       2.56328502       3.68714611      -0.00791926       0.01520755       0.00332267
Fe       2.25444235       2.56015354       7.38631198      -0.00571606       0.00830235       0.00293541
Fe       2.14981306       2.51775163      11.08897897      -0.00335764      -0.00505963      -0.01332518
Fe       3.86777508       3.86777508       1.82852687      -0.41202289       0.00194640      -0.14753674
Fe       3.38373262       3.86747320       5.54311329      -0.01142419       0.00862852       0.00679517
Fe       3.23281589       3.86943470       9.28676181      -0.00770670      -0.00536657      -0.00424359
Fe       5.15369982       2.58185005       0.00999987      -0.00358303      -0.00201483       0.15410926
Fe       4.92734166       2.56600505       3.68591144       0.01735086      -0.01317336       0.00083183
Fe       4.82671912       2.56017283       7.38181712      -0.00479986       0.00297756      -0.00992370
Fe       4.75241306       2.51214442      11.10558376       0.00482065      -0.00132281      -0.01152184
Fe       6.43962485       3.86777508       1.82852687      -0.41380154       0.00425488      -0.14005349
Fe       5.95571847       3.86874010       5.53593238      -0.00799722      -0.00124068       0.00928886
Fe       5.78948322       3.86304312       9.28447442       0.01321369      -0.00070613       0.00970787
Fe       7.72554988       2.58185005       0.00999987      -0.00388840      -0.00223739       0.15427934
Fe       7.50184938       2.56278565       3.68151583      -0.00100043       0.00537483       0.01546338
Fe       7.39574054       2.56107149       7.37432579      -0.00213677      -0.01452681       0.02060277
Fe       7.27220417       2.47290224      11.10111551       0.03144530       0.02729173       0.01371642
Fe       9.01147491       3.86777508       1.82852687      -0.40329665       0.00402741      -0.12383122
Fe       8.52397977       3.86828208       5.52766874       0.01550205       0.00262329      -0.01117288