192
Lattice="10.0691747665 0.0 0.0 0.0 13.4460659027 0.0 0.0 0.0 13.5492553711" Properties=species:S:1:pos:R:3:forces:R:3 energy=-471135.8274702938 stress="-0.0006279626760442044 5.1382094972729824e-09 7.929028444869845e-08 5.1382094972729824e-09 0.0045079810236178484 7.3307156317631085e-09 7.929028444869845e-08 7.3307156317631085e-09 0.003861996719298276" free_energy=-471135.8274702938 pbc="T T T"
Fe       0.88332585       0.45670473       1.48777521       0.00008508      -0.00559930       0.00022911
Fe       0.88332607       0.45670483       6.00419361       0.00007917      -0.00560178       0.00023347
Fe       0.88332585       0.45670453      10.52061220       0.00008362      -0.00559540       0.00022949
Fe       0.88332585       7.17973809       1.48777532       0.00008441      -0.00560723       0.00022791
Fe       0.88332607       7.17973809       6.00419361       0.00007994      -0.00560665       0.00023154
Fe       0.88332577       7.17973809      10.52061220       0.00008570      -0.00560559       0.00022699
Fe       5.91791338       0.45670458       1.48777512       0.00008078      -0.00559510       0.00023282
Fe       5.91791338       0.45670473       6.00419321       0.00007898      -0.00559722       0.00023525
Fe       5.91791338       0.45670444      10.52061220       0.00008152      -0.00559209       0.00022997
Fe       5.91791338       7.17973809       1.48777512       0.00008093      -0.00560568       0.00023176
Fe       5.91791338       7.17973809       6.00419321       0.00007926      -0.00560529       0.00023433
Fe       5.91791338       7.17973809      10.52061220       0.00008276      -0.00560454       0.00022822
Fe       4.15126169       6.26632662       3.02864317      -0.00008223       0.00562387      -0.00022744
Fe       4.15126138       6.26632662       7.54506137      -0.00007942       0.00562413      -0.00022727
Fe       4.15126199       6.26632662      12.06147955      -0.00008935       0.00562580      -0.00022161
Fe       4.15126199      12.98935836       3.02864297      -0.00008709       0.00564628      -0.00022402
Fe       4.15126169      12.98935836       7.54506137      -0.00008378       0.00564708      -0.00022603
Fe       4.15126199      12.98935836      12.06147955      -0.00008952       0.00564820      -0.00022140
Fe       9.18584877       6.26632662       3.02864317      -0.00007900       0.00562270      -0.00022874
Fe       9.18584877       6.26632662       7.54506217      -0.00007678       0.00562365      -0.00023464
Fe       9.18584937       6.26632662      12.06148036      -0.00008543       0.00562300      -0.00022949
Fe       9.18584937      12.98935917       3.02864317      -0.00008498       0.00563561      -0.00022693
Fe       9.18584877      12.98935836       7.54506217      -0.00007689       0.00564608      -0.00023505
Fe       9.18584937      12.98935836      12.06148036      -0.00008487       0.00564532      -0.00022977
Fe       1.63396680       6.26632581       3.74598290      -0.00005625       0.00564014       0.00025713
Fe       1.63396710       6.26632581       8.26240190      -0.00006288       0.00563924       0.00025048
Fe       1.63396649       6.26632581      12.77882008      -0.00005236       0.00563947       0.00025664
Fe       1.63396695      12.98935836       3.74598290      -0.00005663       0.00565300       0.00025698
Fe       1.63396710      12.98935836       8.26240190      -0.00006339       0.00565318       0.00024995
Fe       1.63396665      12.98935836      12.77882008      -0.00005438       0.00565179       0.00025567
Fe       6.66855388       6.26632581       3.74598290      -0.00005252       0.00563914       0.00025826
Fe       6.66855448       6.26632581       8.26240108      -0.00005862       0.00564016       0.00025938
Fe       6.66855388       6.26632581      12.77882008      -0.00005197       0.00563914       0.00025727
Fe       6.66855388      12.98935836       3.74598290      -0.00005215       0.00565151       0.00025797
Fe       6.66855448      12.98935836       8.26240108      -0.00005905       0.00565353       0.00025891
Fe       6.66855388      12.98935836      12.77882008      -0.00005172       0.00565304       0.00025769
Fe       3.40062119       0.45670569       0.77043544       0.00005057      -0.00562369      -0.00025932
Fe       3.40062089       0.45670574       5.28685347       0.00005540      -0.00562330      -0.00025354
Fe       3.40062089       0.45670548       9.80327167       0.00005888      -0.00561769      -0.00024905
Fe       3.40062119       7.17973888       0.77043539       0.00004988      -0.00562834      -0.00025813
Fe       3.40062089       7.17973888       5.28685347       0.00005397      -0.00562699      -0.00025275
Fe       3.40062089       7.17973888       9.80327167       0.00005783      -0.00562662      -0.00024858
Fe       8.43520887       0.45670558       0.77043559       0.00004539      -0.00561924      -0.00026264
Fe       8.43520827       0.45670563       5.28685347       0.00005314      -0.00562302      -0.00025466
Fe       8.43520827       0.45670534       9.80327247       0.00005253      -0.00561519      -0.00025686
Fe       8.43520887       7.17973888       0.77043554       0.00004524      -0.00562604      -0.00026079
Fe       8.43520827       7.17973888       5.28685347       0.00005322      -0.00562771      -0.00025339
Fe       8.43520827       7.17973888       9.80327247       0.00005388      -0.00562669      -0.00025520
Fe       4.15126199       3.81822240       3.02864297      -0.00008493      -0.00562457      -0.00022316
Fe       4.15126169       3.81822240       7.54506137      -0.00008202      -0.00562443      -0.00022379
Fe       4.15126199       3.81822240      12.06147955      -0.00008933      -0.00562539      -0.00021855
Fe       4.15126199      10.54125616       3.02864297      -0.00008598      -0.00564442      -0.00022357
Fe       4.15126169      10.54125616       7.54506137      -0.00008348      -0.00564485      -0.00022389
Fe       4.15126229      10.54125616      12.06147955      -0.00009161      -0.00564515      -0.00021937
Fe       9.18584937       3.81822240       3.02864317      -0.00008382      -0.00562277      -0.00022538
Fe       9.18584877       3.81822240       7.54506137      -0.00007775      -0.00562350      -0.00022723
Fe       9.18584937       3.81822240      12.06147955      -0.00008799      -0.00562305      -0.00022089
Fe       9.18584937      10.54125616       3.02864317      -0.00008417      -0.00563799      -0.00022625
Fe       9.18584877      10.54125616       7.54506137      -0.00007795      -0.00564349      -0.00022773
Fe       9.18584937      10.54125616      12.06148036      -0.00008511      -0.00564282      -0.00022920
Fe       0.88332570       2.90481174       1.48777512       0.00008627       0.00559552       0.00022899
Fe       0.88332592       2.90481154       6.00419321       0.00008121       0.00559753       0.00023457
Fe       0.88332562       2.90481195      10.52061220       0.00008764       0.00559047       0.00022623
Fe       0.88332570       9.62784429       1.48777501       0.00008543       0.00560464       0.00023079
Fe       0.88332592       9.62784429       6.00419321       0.00008140       0.00560397       0.00023513
Fe       0.88332562       9.62784429      10.52061220       0.00008651       0.00560350       0.00022825
Fe       5.91791338       2.90481195       1.48777492       0.00008103       0.00559107       0.00023302
Fe       5.91791338       2.90481174       6.00419321       0.00008030       0.00559439       0.00023438
Fe       5.91791338       2.90481195      10.52061220       0.00008198       0.00558816       0.00022923
Fe       5.91791338       9.62784429       1.48777492       0.00008074       0.00560347       0.00023471
Fe       5.91791338       9.62784429       6.00419321       0.00007996       0.00560399       0.00023614
Fe       5.91791338       9.62784429      10.52061220       0.00008258       0.00560158       0.00023051
Fe       3.40062089       2.90481074       0.77043559       0.00005204       0.00561965      -0.00025879
Fe       3.40062059       2.90481074       5.28685388       0.00005730       0.00561878      -0.00025461
Fe       3.40062059       2.90481094       9.80327247       0.00005894       0.00561388      -0.00025348
Fe       3.40062089       9.62784350       0.77043565       0.00005187       0.00562635      -0.00026104
Fe       3.40062059       9.62784350       5.28685388       0.00005597       0.00562531      -0.00025683
Fe       3.40062059       9.62784350       9.80327247       0.00005820       0.00562441      -0.00025550
Fe       8.43520887       2.90481094       0.77043574       0.00004509       0.00561581      -0.00026338
Fe       8.43520827       2.90481074       5.28685388       0.00005203       0.00561821      -0.00025775
Fe       8.43520827       2.90481114       9.80327247       0.00005249       0.00561047      -0.00025758
Fe       8.43520887       9.62784350       0.77043579       0.00004445       0.00562414      -0.00026407
Fe       8.43520827       9.62784350       5.28685388       0.00005205       0.00562457      -0.00025909
Fe       8.43520827       9.62784350       9.80327247       0.00005507       0.00562479      -0.00025711
Fe       1.63396695       3.81822321       3.74598330      -0.00005716      -0.00563997       0.00025229
Fe       1.63396725       3.81822321       8.26240190      -0.00006340      -0.00564003       0.00024849
Fe       1.63396665       3.81822321      12.77882008      -0.00005346      -0.00563925       0.00025487
Fe       1.63396695      10.54125697       3.74598290      -0.00005649      -0.00565519       0.00025572
Fe       1.63396725      10.54125697       8.26240190      -0.00006375      -0.00565643       0.00024949
Fe       1.63396665      10.54125697      12.77882008      -0.00005410      -0.00565395       0.00025463
Fe       6.66855448       3.81822321       3.74598290      -0.00005632      -0.00563976       0.00025631
Fe       6.66855448       3.81822321       8.26240190      -0.00005991      -0.00564019       0.00025172
Fe       6.66855388       3.81822321      12.77882008      -0.00005088      -0.00563897       0.00025597
Fe       6.66855448      10.54125697       3.74598290      -0.00005691      -0.00565428       0.00025609
Fe       6.66855448      10.54125697       8.26240190      -0.00005993      -0.00565549       0.00025247
Fe       6.66855388      10.54125697      12.77882008      -0.00005069      -0.00565512       0.00025744
Fe       0.19227539       1.68075824       3.76596410      -0.01008351      -0.00000207       0.00948626
Fe       0.19227533       1.68075824       8.28238269      -0.01008494      -0.00000276       0.00948450
Fe       0.19227548       1.68075824      12.79880088      -0.01008547      -0.00000327       0.00948922
Fe       0.19227537       8.40379038       3.76596410      -0.01008416       0.00000715       0.00948511
Fe       0.19227531       8.40379038       8.28238269      -0.01008345       0.00000783       0.00948456
Fe       0.19227548       8.40379038      12.79880088      -0.01008407       0.00000713       0.00949045
Fe       5.22686311       1.68075824       3.76596450      -0.01009143      -0.00000302       0.00947537
Fe       5.22686311       1.68075824       8.28238269      -0.01009049      -0.00000341       0.00948063
Fe       5.22686311       1.68075824      12.79880168      -0.01009138      -0.00000344       0.00947751
Fe       5.22686311       8.40379038       3.76596450      -0.01009019       0.00000769       0.00947559
Fe       5.22686311       8.40379038       8.28238269      -0.01008656       0.00000712       0.00948026
Fe       5.22686311       8.40379038      12.79880168      -0.01009163       0.00000697       0.00947469
Fe       4.84231345       5.04227431       0.75045551       0.01005550       0.00000401      -0.00951444
Fe       4.84231375       5.04227431       5.26687389       0.01005128       0.00000335      -0.00951514
Fe       4.84231375       5.04227431       9.78329248       0.01005429       0.00000394      -0.00952051
Fe       4.84231345      11.76530766       0.75045545       0.01005515      -0.00000169      -0.00951459
Fe       4.84231375      11.76530766       5.26687389       0.01005218      -0.00000156      -0.00951350
Fe       4.84231375      11.76530766       9.78329248       0.01005351      -0.00000210      -0.00951831
Fe       9.87690024       5.04227431       0.75045501       0.01006678       0.00000382      -0.00950175
Fe       9.87690083       5.04227431       5.26687349       0.01005722       0.00000403      -0.00950573
Fe       9.87690083       5.04227431       9.78329168       0.01006235       0.00000461      -0.00950182
Fe       9.87690024      11.76530766       0.75045490       0.01006724      -0.00000128      -0.00949873
Fe       9.87690083      11.76530766       5.26687349       0.01005838      -0.00000038      -0.00950353
Fe       9.87690083      11.76530766       9.78329168       0.01006112      -0.00000226      -0.00950171
Fe       2.32501811       5.04227431       1.50775491       0.01009613       0.00000348       0.00947498
Fe       2.32501782       5.04227431       6.02417359       0.01010248       0.00000381       0.00947014
Fe       2.32501826       5.04227431      10.54059138       0.01009260       0.00000461       0.00948479
Fe       2.32501811      11.76530766       1.50775500       0.01009672      -0.00000098       0.00947045
Fe       2.32501782      11.76530766       6.02417359       0.01010130      -0.00000078       0.00946867
Fe       2.32501826      11.76530766      10.54059138       0.01009405      -0.00000143       0.00948176
Fe       7.35960535       5.04227431       1.50775531       0.01010182       0.00000403       0.00946845
Fe       7.35960475       5.04227431       6.02417399       0.01011057       0.00000355       0.00946148
Fe       7.35960535       5.04227431      10.54059219       0.01010095       0.00000505       0.00947233
Fe       7.35960535      11.76530766       1.50775531       0.01010108      -0.00000147       0.00946619
Fe       7.35960475      11.76530766       6.02417399       0.01010767      -0.00000105       0.00946140
Fe       7.35960535      11.76530766      10.54059219       0.01010128      -0.00000153       0.00946911
Fe       2.70956882       1.68075824       3.00866379      -0.01007893      -0.00000245      -0.00948521
Fe       2.70956852       1.68075824       7.52508299      -0.01007128      -0.00000254      -0.00949762
Fe       2.70956852       1.68075824      12.04150117      -0.01007334      -0.00000304      -0.00949103
Fe       2.70956882       8.40379038       3.00866379      -0.01007964       0.00000744      -0.00948441
Fe       2.70956852       8.40379038       7.52508299      -0.01007160       0.00000766      -0.00949796
Fe       2.70956852       8.40379038      12.04150117      -0.01007284       0.00000703      -0.00948940
Fe       7.74415621       1.68075824       3.00866318      -0.01008253      -0.00000198      -0.00947694
Fe       7.74415621       1.68075824       7.52508218      -0.01007826      -0.00000258      -0.00948389
Fe       7.74415621       1.68075824      12.04150037      -0.01008138      -0.00000277      -0.00947646
Fe       7.74415621       8.40379038       3.00866318      -0.01008314       0.00000744      -0.00947430
Fe       7.74415621       8.40379038       7.52508218      -0.01008056       0.00000738      -0.00948139
Fe       7.74415621       8.40379038      12.04150037      -0.01008307       0.00000736      -0.00947417
C        4.41270336       1.68075774       1.97861524      -0.02220858       0.00000356       0.00305945
C        4.41270366       1.68075774       6.49503384      -0.02221671       0.00000286       0.00305653
C        4.41270366       1.68075774      11.01145284      -0.02221645       0.00000202       0.00305345
C        4.41270336       8.40379119       1.97861504      -0.02220980       0.00000025       0.00306277
C        4.41270366       8.40379119       6.49503344      -0.02221708      -0.00000022       0.00306174
C        4.41270366       8.40379119      11.01145202      -0.02221681      -0.00000073       0.00306272
C        9.44729104       1.68075774       1.97861544      -0.02221350       0.00000233       0.00305591
C        9.44729104       1.68075774       6.49503384      -0.02221523       0.00000254       0.00305468
C        9.44729104       1.68075774      11.01145284      -0.02221648       0.00000315       0.00304866
C        9.44729104       8.40379119       1.97861524      -0.02221380      -0.00000041       0.00305930
C        9.44729104       8.40379119       6.49503384      -0.02221578      -0.00000018       0.00305606
C        9.44729104       8.40379119      11.01145284      -0.02221695      -0.00000026       0.00305114
C        0.62188429       5.04227471       2.53780274       0.02221174      -0.00000143      -0.00305163
C        0.62188436       5.04227471       7.05422073       0.02221096      -0.00000112      -0.00304310
C        0.62188410       5.04227471      11.57063972       0.02221671      -0.00000145      -0.00305382
C        0.62188410      11.76530766       2.53780314       0.02221534      -0.00000049      -0.00305909
C        0.62188421      11.76530766       7.05422153       0.02221365      -0.00000101      -0.00305341
C        0.62188394      11.76530766      11.57063972       0.02221989      -0.00000144      -0.00305681
C        5.65647170       5.04227471       2.53780233       0.02221271      -0.00000178      -0.00304463
C        5.65647170       5.04227471       7.05422073       0.02221056      -0.00000239      -0.00304041
C        5.65647111       5.04227471      11.57063891       0.02222270      -0.00000161      -0.00304019
C        5.65647111      11.76530766       2.53780274       0.02222258      -0.00000213      -0.00305141
C        5.65647111      11.76530766       7.05422153       0.02221943      -0.00000291      -0.00305037
C        5.65647111      11.76530766      11.57063972       0.02222446      -0.00000097      -0.00305126
C        3.13917711       5.04227471       4.23682434       0.02223145      -0.00000175       0.00305858
C        3.13917711       5.04227471       8.75324333       0.02223561      -0.00000151       0.00305082
C        3.13917711       5.04227471      13.26966153       0.02223126      -0.00000126       0.00305196
C        3.13917711      11.76530766       4.23682393       0.02223154      -0.00000140       0.00306549
C        3.13917681      11.76530766       8.75324252       0.02223863      -0.00000068       0.00306117
C        3.13917711      11.76530766      13.26966071       0.02223054      -0.00000188       0.00306309
C        8.17376480       5.04227471       4.23682434       0.02222329      -0.00000109       0.00306090
C        8.17376480       5.04227471       8.75324333       0.02222553      -0.00000241       0.00305518
C        8.17376480       5.04227471      13.26966153       0.02222214      -0.00000299       0.00305295
C        8.17376480      11.76530766       4.23682393       0.02222426       0.00000072       0.00306660
C        8.17376480      11.76530766       8.75324252       0.02222403      -0.00000219       0.00306609
C        8.17376480      11.76530766      13.26966071       0.02222035      -0.00000134       0.00306509
C        1.89540967       1.68075774       0.27959273      -0.02221468       0.00000237      -0.00302932
C        1.89540982       1.68075774       4.79601123      -0.02221647       0.00000231      -0.00303420
C        1.89541012       1.68075774       9.31242942      -0.02222368       0.00000330      -0.00302548
C        1.89540967       8.40379119       0.27959296      -0.02221426      -0.00000058      -0.00303305
C        1.89540982       8.40379119       4.79601123      -0.02221641      -0.00000068      -0.00303548
C        1.89541027       8.40379119       9.31242942      -0.02222563       0.00000033      -0.00302761
C        6.92999676       1.68075774       0.27959296      -0.02220345       0.00000270      -0.00303427
C        6.92999676       1.68075774       4.79601123      -0.02220674       0.00000315      -0.00303633
C        6.92999676       1.68075774       9.31242942      -0.02220826       0.00000310      -0.00302968
C        6.92999676       8.40379119       0.27959319      -0.02220320      -0.00000004      -0.00303872
C        6.92999676       8.40379119       4.79601163      -0.02220628       0.00000038      -0.00304153
C        6.92999735       8.40379119       9.31243022      -0.02221513       0.00000035      -0.00303894
193
Lattice="10.076540654505118 -0.0035175220300831555 -0.00038101986925713894 -0.004697661278923401 13.450318154622574 0.0019361060576072486 -0.0005126093447890474 0.0019507932986280064 13.549937589504616" Properties=species:S:1:pos:R:3:forces:R:3 energy=-471290.3236508889 stress="-0.0011363652041124638 0.0010160466201160048 6.491240070522961e-05 0.0010160466201160048 -0.0011242884518217605 -0.00019771962825699315 6.491240070522961e-05 -0.00019771962825699315 0.0003255720352848277" free_energy=-471290.3236508889 pbc="T T T"
Fe       0.87189339       0.49053984       1.52576259      -0.00322235      -0.00325645      -0.00923022
Fe       0.90474601       0.49379486       5.96627175       0.00153468       0.00695874      -0.00220678
Fe       0.89910849       0.40982512      10.51608458       0.00001871       0.00308793       0.00482921
Fe       0.88247962       7.21236403       1.49717928       0.00216649      -0.00581602      -0.00309236
Fe       0.90770890       7.21684370       5.94894336       0.00030368       0.00796117       0.00293369
Fe       0.94498093       7.09683498      10.49736618      -0.01030062       0.00699945       0.01358630
Fe       5.88697476       0.47672181       1.55464614       0.00133235      -0.00291689      -0.00123954
Fe       5.90649988       0.48912217       5.99145249       0.00334664      -0.00012428      -0.00085559
Fe       5.90172494       0.43445560      10.53064393      -0.00396617       0.01256226      -0.00173080
Fe       5.88393439       7.16947849       1.53922643       0.00112565       0.00209650       0.00701836
Fe       5.91220913       7.21301570       5.96892759       0.00901852       0.00333402       0.00054536
Fe       5.93434818       7.07508343      10.53795737       0.00079036      -0.02321332       0.00987113
Fe       4.13004831       6.23092222       3.06738197       0.00105256      -0.00802633       0.00108049
Fe       4.16262364       6.23444710       7.50802120       0.00314972       0.00223791       0.01021790
Fe       4.13563455       6.31785054      12.06745543      -0.00444412      -0.00600418      -0.00520951
Fe       4.12254525      12.95810244       3.08646034      -0.00005446      -0.00789161      -0.00273483
Fe       4.14738721      12.96276143       7.53846418      -0.00036813       0.00885590       0.00083362
Fe       4.08487366      13.08099950      12.08806880       0.00672282      -0.00654616      -0.01128667
Fe       9.20505446       6.23187876       3.04182391      -0.00337698      -0.00173769       0.00048732
Fe       9.22426370       6.24469701       7.47829875       0.00003451       0.00466110       0.00254116
Fe       9.20885969       6.28934471      12.05204313       0.00965319      -0.00944575       0.00136186
Fe       9.19425084      12.95844018       3.06617041      -0.00921744      -0.00277016      -0.00003697
Fe       9.22241628      13.00200345       7.49580810       0.00122180       0.00454280      -0.00909280
Fe       9.17163091      13.10052035      12.04709235       0.00626216      -0.00280988      -0.01221047
Fe       1.64444549       6.22044186       3.72523467       0.00536024       0.00226038       0.00539533
Fe       1.62711381       6.23501659       8.21068609       0.00108148       0.00276749      -0.00510678
Fe       1.65477033       6.31255526      12.80428950      -0.00542793      -0.00530101       0.00395855
Fe       1.64246600      12.94536995       3.75000966      -0.00595743       0.00194190       0.00177716
Fe       1.61711127      12.95245194       8.23315261      -0.00607464       0.00717307       0.00408481
Fe       1.63152597      13.04493724      12.82623570       0.00553947      -0.01325574      -0.00055721
Fe       6.67175622       6.24396750       3.74992799       0.00019636      -0.00856894      -0.00527515
Fe       6.65214540       6.25132350       8.21975288       0.00810521      -0.00033068       0.01052449
Fe       6.67340231       6.30793623      12.83563581      -0.00193698      -0.00097465      -0.00416093
Fe       6.67049800      12.98188538       3.77301483       0.00445877      -0.00750240       0.00554525
Fe       6.63117111      13.01473842       8.23382410      -0.01803910       0.00112330      -0.01998623
Fe       6.65279698      13.13877566      12.85488652       0.00518735      -0.00628301      -0.00267887
Fe       3.40795281       0.48973556       0.82304058      -0.00286354      -0.00166070       0.00282666
Fe       3.39037371       0.50443927       5.30824956      -0.00634793      -0.00360156      -0.00546759
Fe       3.37915705       0.41478529       9.77925163       0.00834832       0.00834338      -0.00161866
Fe       3.41346523       7.22267485       0.80207513       0.00398320      -0.00818596      -0.00254352
Fe       3.38789871       7.22934796       5.28533137       0.00468950      -0.00073313      -0.00221142
Fe       3.39771207       7.13375606       9.75899688      -0.00076975       0.00776823       0.00416729
Fe       8.45902218       0.47020046       0.81334343      -0.00520942       0.00043687      -0.00716247
Fe       8.43966341       0.47735463       5.28326171      -0.00185862       0.00829820       0.00427277
Fe       8.43783623       0.41603272       9.74750580      -0.00412460      -0.00007430       0.00180081
Fe       8.47596568       7.15670702       0.80110035       0.01444706       0.00135593       0.02071901
Fe       8.43611401       7.18934849       5.26165283      -0.00250811       0.00871299      -0.00329289
Fe       8.45322700       7.03562934       9.72986995      -0.00186929       0.00065684       0.00519373
Fe       4.16080931       3.78409301       2.99114224      -0.00033263      -0.00161227      -0.00177885
Fe       4.13841947       3.78832414       7.55824296       0.00190954       0.00261472      -0.00012398
Fe       4.16910877       3.87248892      12.05111663      -0.01114462       0.00383736       0.01836064
Fe       4.16817614      10.50769480       2.98271789      -0.00160368       0.00320874       0.00018764
Fe       4.14859107      10.52006691       7.56965942      -0.00392891       0.00333557       0.01275573
Fe       4.19647970      10.62330935      12.04956585       0.00226661       0.00611553      -0.00029050
Fe       9.18337844       3.78317770       3.00712722      -0.00107112      -0.01131563      -0.00168376
Fe       9.17091774       3.80033876       7.57260757       0.00514678      -0.00538500      -0.00120302
Fe       9.20090719       3.86215568      12.07396000       0.01209530       0.00341225      -0.00473278
Fe       9.18344270      10.50526923       3.01897514       0.00796078       0.00081686      -0.00880046
Fe       9.15497881      10.55717242       7.59948639       0.00401122      -0.00193387       0.00636041
Fe       9.17019871      10.68448531      12.14415965      -0.00303654      -0.00085758      -0.00831748
Fe       0.89649637       2.93637512       1.47538977      -0.00228206       0.00178861       0.00201031
Fe       0.87384347       2.94055328       6.04282090       0.00215986       0.00234256       0.00132102
Fe       0.86544388       2.85517434      10.53279416       0.00713382      -0.00591862      -0.01681776
Fe       0.88149515       9.65505712       1.46509326       0.00540637      -0.00138564      -0.01060580
Fe       0.86141631       9.66730244       6.05260568       0.00688370      -0.00435974      -0.00410264
Fe       0.83313169       9.55443122      10.53553103      -0.00181365      -0.00401354       0.00269818
Fe       5.94024117       2.92140989       1.46088659      -0.00311069       0.00323302       0.00090706
Fe       5.92776012       2.93780136       6.02632733       0.00360102       0.01120883      -0.00040949
Fe       5.91010042       2.86182369      10.50986124      -0.01269774      -0.00435067       0.00261961
Fe       5.95199977       9.61499766       1.43507611      -0.00796579      -0.00245149      -0.00460760
Fe       5.92339696       9.66607777       6.01586119      -0.00683216      -0.00047091       0.00669166
Fe       5.93513749       9.48900731      10.44075393       0.03246203       0.02825366       0.01714345
Fe       3.38113371       2.93758882       0.73917330       0.00331095      -0.00664393       0.00279507
Fe       3.41039813       2.95192364       5.27908858       0.00240534      -0.00624878      -0.00049295
Fe       3.41288604       2.86082164       9.83211720      -0.00342509      -0.00862852      -0.00199062
Fe       3.38929359       9.67284116       0.71779795      -0.00567985      -0.00300744       0.00309336
Fe       3.41552705       9.68145034       5.27224860      -0.00882391      -0.00060210      -0.00433351
Fe       3.42287883       9.58150451       9.83687853       0.00074123      -0.00030188       0.00096658
Fe       8.41803510       2.91389844       0.74897681      -0.00089531       0.00338620      -0.00537705
Fe       8.44225784       2.92373805       5.28919177       0.00049976       0.00551298       0.00107464
Fe       8.44828034       2.84900969       9.83004973       0.00566291      -0.00326342      -0.00003559
Fe       8.40717080       9.61096467       0.77804160      -0.00778756       0.00459209       0.00117511
Fe       8.44482012       9.64651737       5.29599728       0.00429721       0.00882004       0.00287888
Fe       8.48931066       9.44459727       9.80393136      -0.02584876       0.00996302       0.02758927