168
Lattice="11.5770616531 0.0 0.0 3.6273e-06 13.6203174591 0.0 -1.369912746 3.648e-07 9.9195176189" Properties=species:S:1:pos:R:3:forces:R:3 energy=-393853.44224887714 stress="0.0033806159800607747 5.419169876060551e-05 0.0005725998965341979 5.419169876060551e-05 -0.0008283620630003876 2.1940672112894642e-06 0.0005725998965341979 2.1940672112894642e-06 0.0011993343332251387" free_energy=-393853.44224887714 pbc="T T T"
Fe       8.06272888       0.37057053       1.54627691      -0.00884189      -0.01410666       0.00819118
Fe       7.37777247       0.37057129       6.50603602      -0.00884697      -0.01413854       0.00817355
Fe       8.06273488       4.91068153       1.54628224      -0.00896090      -0.01423797       0.00804738
Fe       7.37777846       4.91068252       6.50604134      -0.00896991      -0.01427022       0.00803196
Fe       8.06273740       9.45078180       1.54627766      -0.00894694      -0.01412679       0.00815775
Fe       7.37778093       9.45078279       6.50603720      -0.00895512      -0.01415923       0.00813795
Fe       8.96053598       2.64073792       0.93343738       0.00511567      -0.01714456      -0.00405222
Fe       8.27557991       2.64073546       5.89319900       0.00510896      -0.01708564      -0.00410893
Fe       8.96053683       7.18084306       0.93343997       0.00512346      -0.01711402      -0.00412922
Fe       8.27558010       7.18084082       5.89320137       0.00512668      -0.01705817      -0.00418263
Fe       8.96053362      11.72095024       0.93343701       0.00523042      -0.01716885      -0.00404310
Fe       8.27557759      11.72094718       5.89319841       0.00522048      -0.01710428      -0.00410096
Fe       8.61792854       1.89952670       3.41352683       0.00820774       0.01343356      -0.00913083
Fe       7.93297038       1.89952567       8.37328357       0.00825253       0.01345964      -0.00909556
Fe       8.61792581       6.43962596       3.41352032       0.00828072       0.01359696      -0.00896837
Fe       7.93296766       6.43962533       8.37327707       0.00832309       0.01361846      -0.00893207
Fe       8.61792669      10.97973354       3.41352269       0.00831023       0.01353691      -0.00903494
Fe       7.93296854      10.97973210       8.37327943       0.00835471       0.01356986      -0.00899210
Fe       7.72005704       4.16940637       4.02630177      -0.00427277       0.01775972       0.00430962
Fe       7.03510114       4.16940656       8.98606206      -0.00428785       0.01776526       0.00428028
Fe       7.72005232       8.70951476       4.02629970      -0.00412675       0.01768667       0.00436252
Fe       7.03509648       8.70951494       8.98605969      -0.00414502       0.01768834       0.00434089
Fe       7.72005640      13.24961626       4.02630384      -0.00420103       0.01780266       0.00424852
Fe       7.03510126      13.24961644       8.98606383      -0.00422736       0.01780786       0.00422138
Fe       2.27428398       2.64120901       1.54693453      -0.01250469      -0.03179200      -0.01137136
Fe       1.58932903       2.64120656       6.50669171      -0.01252500      -0.03173012      -0.01132365
Fe       2.27428395       7.18132532       1.54695094      -0.01247185      -0.03207426      -0.01176849
Fe       1.58932908       7.18132307       6.50670768      -0.01249319      -0.03201411      -0.01171775
Fe       2.27428040      11.72141951       1.54694044      -0.01235150      -0.03179181      -0.01148654
Fe       1.58932554      11.72141725       6.50669704      -0.01237793      -0.03172929      -0.01143496
Fe       3.17207768       0.36958189       0.93477412       0.00356783       0.01143006      -0.03864260
Fe       2.48712019       0.36958603       5.89453109       0.00359604       0.01133537      -0.03858644
Fe       3.17208404       4.90967768       0.93478432       0.00342571       0.01171235      -0.03892691
Fe       2.48712648       4.90968151       5.89454173       0.00345233       0.01162242      -0.03887682
Fe       3.17207866       9.44978404       0.93478454       0.00360970       0.01168938      -0.03895381
Fe       2.48712079       9.44978828       5.89454173       0.00363951       0.01159321      -0.03889790
Fe       2.82936073       4.16892738       3.41281467       0.01115772       0.03255321       0.01173572
Fe       2.14440756       4.16892796       8.37257525       0.01109084       0.03254269       0.01171323
Fe       2.82935403       8.70902196       3.41280698       0.01134246       0.03281508       0.01194636
Fe       2.14440086       8.70902214       8.37256757       0.01127627       0.03280846       0.01192422
Fe       2.82935693      13.24913807       3.41281970       0.01130760       0.03254614       0.01162586
Fe       2.14440373      13.24913825       8.37258057       0.01124200       0.03253924       0.01159943
Fe       1.93152036       1.90051351       4.02496318      -0.00395952      -0.01201864       0.03911769
Fe       1.24655965       1.90051146       8.98472465      -0.00387322      -0.01196709       0.03907343
Fe       1.93152132       6.44063266       4.02494751      -0.00394564      -0.01236789       0.03954506
Fe       1.24656065       6.44063082       8.98470869      -0.00386053      -0.01231737       0.03950446
Fe       1.93151585      10.98073456       4.02495342      -0.00376898      -0.01227821       0.03938309
Fe       1.24655518      10.98073312       8.98471460      -0.00368071      -0.01223456       0.03934474
Fe      10.04309202       4.17315863       2.89636784      -0.00070889       0.00305209       0.00528450
Fe       9.35813435       4.17315963       7.85612606      -0.00069581       0.00303053       0.00529423
Fe      10.04309522       8.71326864       2.89636341      -0.00073732       0.00296273       0.00539267
Fe       9.35813751       8.71326964       7.85612193      -0.00072216       0.00293881       0.00539958
Fe      10.04309634      13.25336852       2.89636903      -0.00075249       0.00308582       0.00526749
Fe       9.35813868      13.25336951       7.85612724      -0.00073774       0.00306303       0.00527527
Fe       6.29511335       1.90303976       4.54311339      -0.00058375       0.00412178      -0.00161499
Fe       5.61015848       1.90303933       9.50287131      -0.00060698       0.00412439      -0.00160055
Fe       6.29511427       6.44314246       4.54311043      -0.00058624       0.00418200      -0.00155631
Fe       5.61015941       6.44314184       9.50286836      -0.00060808       0.00418975      -0.00153844
Fe       6.29511605      10.98324964       4.54311132      -0.00060732       0.00414528      -0.00158313
Fe       5.61016114      10.98324982       9.50286954      -0.00062957       0.00414667      -0.00157075
Fe      10.38552395       0.36713721       0.41673603       0.00040654      -0.00685055      -0.00042500
Fe       9.70056862       0.36714084       5.37649735       0.00039785      -0.00693192      -0.00047715
Fe      10.38552507       4.90724255       0.41673673       0.00041800      -0.00684743      -0.00044197
Fe       9.70056975       4.90724599       5.37649794       0.00041038      -0.00691948      -0.00048816
Fe      10.38552722       9.44735014       0.41673994       0.00040468      -0.00689425      -0.00050956
Fe       9.70057185       9.44735356       5.37650148       0.00039976      -0.00696969      -0.00056219
Fe       6.63754702       2.63705954       2.06332785       0.00077185      -0.00431903      -0.00398269
Fe       5.95259197       2.63705871       7.02308710       0.00075617      -0.00429592      -0.00399588
Fe       6.63754815       7.17716549       2.06332844       0.00074851      -0.00432041      -0.00400054
Fe       5.95259310       7.17716487       7.02308769       0.00073183      -0.00430170      -0.00401091
Fe       6.63754963      11.71727511       2.06332652       0.00075217      -0.00440840      -0.00394773
Fe       5.95259455      11.71727447       7.02308592       0.00073612      -0.00439193      -0.00395998
Fe      -0.51368584       1.98194677       3.71970736      -0.00277723      -0.01350474       0.00289937
Fe      -1.19864111       1.98194572       8.67946676      -0.00282632      -0.01347131       0.00288450
Fe      -0.51368231       6.52205272       3.71970529      -0.00285706      -0.01349395       0.00294567
Fe      -1.19863765       6.52205167       8.67946499      -0.00290558      -0.01345975       0.00292804
Fe      -0.51367535      11.06215908       3.71970618      -0.00298339      -0.01352024       0.00291544
Fe      -1.19863073      11.06215764       8.67946617      -0.00303446      -0.01348380       0.00289431
Fe      11.40559152       2.55822371       1.23994369       0.00502600       0.01109572      -0.00004703
Fe      10.72063444       2.55822309       6.19970265       0.00504936       0.01111103      -0.00004619
Fe      11.40559244       7.09832988       1.23994576       0.00504172       0.01109065      -0.00008365
Fe      10.72063541       7.09832924       6.19970442       0.00505967       0.01110388      -0.00008061
Fe      11.40559855      11.63843460       1.23994532       0.00489181       0.01111787      -0.00008733
Fe      10.72064075      11.63843398       6.19970442       0.00492737       0.01113071      -0.00008618
Fe       4.25447004       1.90291548       2.89653635       0.00095131       0.00646690       0.00162333
Fe       3.56951389       1.90292054       7.85629103       0.00094501       0.00636100       0.00170827
Fe       4.25446747       6.44301860       2.89653871       0.00099401       0.00651096       0.00157094
Fe       3.56951167       6.44302365       7.85629339       0.00098610       0.00640397       0.00165674
Fe       4.25447107      10.98312617       2.89653635       0.00094043       0.00645484       0.00163358
Fe       3.56951493      10.98313123       7.85629103       0.00093344       0.00634999       0.00171840
Fe       0.50655112       4.17272517       4.54305161       0.00142041       0.01337307       0.00036959
Fe      -0.17840497       4.17273064       9.50281337       0.00141908       0.01327300       0.00031515
Fe       0.50655605       8.71283356       4.54305279       0.00135470       0.01331202       0.00034578
Fe      -0.17840021       8.71283942       9.50281515       0.00135602       0.01320808       0.00028698
Fe       0.50655442      13.25293586       4.54304954       0.00136969       0.01339565       0.00042125
Fe      -0.17840179      13.25294092       9.50281160       0.00136905       0.01329884       0.00036564
Fe       4.59703397       2.63744632       0.41673447      -0.00143338      -0.01365121      -0.00087268
Fe       3.91207725       2.63744143       5.37649085      -0.00142035      -0.01353533      -0.00081264
Fe       4.59703370       7.17755025       0.41673266      -0.00144590      -0.01361195      -0.00082915
Fe       3.91207698       7.17754555       5.37648907      -0.00143381      -0.01350007      -0.00077287
Fe       4.59703703      11.71765985       0.41673481      -0.00148271      -0.01368684      -0.00086881
Fe       3.91208035      11.71765435       5.37649085      -0.00146969      -0.01356315      -0.00080436
Fe       0.84910693       0.36721833       2.06317679      -0.00059306      -0.00830693      -0.00043759
Fe       0.16414908       0.36721760       7.02293693      -0.00057051      -0.00831497      -0.00044509
Fe       0.84910920       4.90732421       2.06317664      -0.00058137      -0.00829481      -0.00043752
Fe       0.16415132       4.90732358       7.02293693      -0.00055882      -0.00830025      -0.00044724
Fe       0.84911277       9.44743301       2.06317383      -0.00063420      -0.00836452      -0.00037120
Fe       0.16415492       9.44743156       7.02293397      -0.00061263      -0.00836310      -0.00038057
Fe       5.27502893       4.25185625       3.71981172      -0.00459146      -0.00987877       0.00014705
Fe       4.59007259       4.25185522       8.67957023      -0.00457019      -0.00984711       0.00015984
Fe       5.27503574       8.79196058       3.71981112      -0.00476995      -0.00986646       0.00014206
Fe       4.59007941       8.79195995       8.67956964      -0.00474978      -0.00983644       0.00015477
Fe       5.27503398      13.33206694       3.71981260      -0.00467719      -0.00985881       0.00012484
Fe       4.59007769      13.33206550       8.67957082      -0.00465377      -0.00982113       0.00013934
Fe       5.61723516       0.28808413       1.24004761       0.00340209       0.01370436      -0.00279683
Fe       4.93228064       0.28808623       6.19980552       0.00335680       0.01367090      -0.00278058
Fe       5.61723120       4.82818941       1.24004761       0.00355752       0.01371066      -0.00279469
Fe       4.93227632       4.82819164       6.19980552       0.00351760       0.01367867      -0.00277778
Fe       5.61723827       9.36829456       1.24004761       0.00341955       0.01371953      -0.00280539
Fe       4.93228340       9.36829636       6.19980552       0.00337742       0.01368962      -0.00278819
C        6.70945268       0.84744286       2.87517954      -0.00395628      -0.00288675      -0.00147192
C        6.02449680       0.84744345       7.83493983      -0.00395310      -0.00290005      -0.00148287
C        6.70945451       5.38754973       2.87518013      -0.00397382      -0.00291115      -0.00149059
C        6.02449853       5.38755031       7.83494101      -0.00396963      -0.00292267      -0.00150915
C        6.70945583       9.92765081       2.87518426      -0.00396159      -0.00281344      -0.00158727
C        6.02449986       9.92765099       7.83494515      -0.00396074      -0.00281894      -0.00160422
C        9.62862678       3.11732368       4.56450982       0.00634903       0.00123655      -0.00027107
C        8.94366885       3.11732631       9.52426981       0.00636238       0.00118660      -0.00031755
C        9.62862750       7.65742883       4.56451337       0.00633605       0.00122613      -0.00035014
C        8.94366957       7.65743145       9.52427336       0.00635045       0.00117646      -0.00039529
C        9.62862968      12.19753843       4.56451130       0.00633133       0.00115696      -0.00030330
C        8.94367172      12.19754187       9.52427158       0.00634414       0.00109645      -0.00035546
C        9.97119788       1.42255276       2.08453891       0.00332733       0.00402384       0.00216730
C        9.28624308       1.42255254       7.04429639       0.00332086       0.00402729       0.00220147
C        9.97119682       5.96265791       2.08454039       0.00336332       0.00404102       0.00213982
C        9.28624127       5.96265768       7.04429817       0.00336107       0.00404592       0.00216829
C        9.97119937      10.50275899       2.08454069       0.00333725       0.00414751       0.00212720
C        9.28624386      10.50275837       7.04429817       0.00333518       0.00415278       0.00216238
C        7.05202483       3.69273618       0.39520986      -0.00616063       0.00087864       0.00134859
C        6.36706783       3.69273636       5.35496818      -0.00615311       0.00088600       0.00135208
C        7.05202623       8.23284619       0.39521344      -0.00616952       0.00077430       0.00128044
C        6.36706985       8.23284637       5.35497233      -0.00616531       0.00078119       0.00127964
C        7.05202772      12.77295013       0.39521141      -0.00618496       0.00081226       0.00130392
C        6.36707138      12.77294949       5.35496996      -0.00618323       0.00082153       0.00130725
C        0.92111197       3.11701920       2.87551744      -0.01173854       0.00895017      -0.00897658
C        0.23615524       3.11701957       7.83527506      -0.01172645       0.00894706      -0.00895029
C        0.92112428       7.65711703       2.87552128      -0.01193052       0.00914756      -0.00902175
C        0.23616752       7.65711721       7.83527921      -0.01191887       0.00914488      -0.00899786
C        0.92112042      12.19722501       2.87552306      -0.01183848       0.00908496      -0.00907034
C        0.23616366      12.19722519       7.83528098      -0.01182762       0.00908460      -0.00905094
C        3.84055243       0.84749594       4.56419055      -0.00378810      -0.00457666       0.00709452
C        3.15559598       0.84749288       9.52394994      -0.00377826      -0.00449747       0.00710049
C        3.84055466       5.38760377       4.56418818      -0.00383366      -0.00461800       0.00715250
C        3.15559821       5.38760071       9.52394758      -0.00382159      -0.00453867       0.00715779
C        3.84055612       9.92770933       4.56418877      -0.00387702      -0.00465092       0.00711906
C        3.15559967       9.92770626       9.52394817      -0.00386692      -0.00456818       0.00712440
C        4.18241990       3.69309183       2.08427182       0.01205270      -0.00805933       0.00803004
C        3.49746484       3.69308875       7.04403862       0.01204753      -0.00798030       0.00788896
C        4.18241856       8.23319778       2.08427285       0.01209238      -0.00806786       0.00799027
C        3.49746321       8.23319390       7.04403920       0.01208631      -0.00797975       0.00785180
C        4.18242768      12.77329928       2.08427551       0.01195511      -0.00794813       0.00797098
C        3.49747264      12.77329620       7.04404216       0.01194844      -0.00786876       0.00782739
C        1.26301119       1.42254671       0.39560799       0.00421740       0.00490015      -0.00786909
C        0.57805392       1.42254912       5.35537023       0.00423459       0.00484439      -0.00794701
C        1.26300937       5.96264810       0.39560928       0.00434155       0.00502413      -0.00788661
C        0.57805211       5.96265031       5.35537142       0.00435701       0.00496835      -0.00796348
C        1.26301282      10.50275568       0.39560932       0.00425718       0.00496077      -0.00790012
C        0.57805557      10.50275749       5.35537142       0.00427103       0.00490690      -0.00797635
169
Lattice="11.58465958373483 0.0015355680152125955 0.0031840601474411663 0.0018099891835508459 13.631596628289493 0.0008933094185647664 -1.368083895314791 0.00046925525509156155 9.92037661441754" Properties=species:S:1:pos:R:3:forces:R:3 energy=-394007.4593069542 stress="-0.004348054411201507 -0.0004467667911352902 -0.001726184317613718 -0.0004467667911352902 -0.0033595834790124185 -0.0002503955581717123 -0.001726184317613718 -0.0002503955581717123 0.0007145121591760052" free_energy=-394007.4593069542 pbc="T T T"
Fe       8.06680418       0.37603832       1.55038575      -0.00157979       0.00379497       0.00402852
Fe       7.37877769       0.37086840       6.50920120      -0.00040135       0.00224090      -0.00587197
Fe       8.07120952       4.90611839       1.55544861      -0.00831610      -0.00022150      -0.00057879
Fe       7.35673755       4.89241566       6.50039122       0.00550480       0.00235909      -0.00149415
Fe       8.14339647       9.47528623       1.56700339      -0.00630132       0.00496809      -0.01082727
Fe       7.41644633       9.46807236       6.51139031       0.00229958       0.00397960      -0.00377670
Fe       8.97217171       2.63731761       0.93553598      -0.00388408      -0.00245961      -0.00062193
Fe       8.28609395       2.62977993       5.89129112      -0.00067529       0.00333069       0.00816622
Fe       8.91665326       7.17863787       0.92963093       0.01261497       0.00414993      -0.00774750
Fe       8.23795538       7.17892501       5.88733896       0.00635967       0.00090302      -0.00551706
Fe       8.96444776      11.74557139       0.93324289      -0.00607245      -0.00020306       0.00528695
Fe       8.30564703      11.74256870       5.89483409       0.00028922       0.00368048       0.00180531
Fe       8.62936363       1.90460210       3.41477705       0.00311746      -0.00153562       0.00886703
Fe       7.94197185       1.89955674       8.37342306       0.00070820      -0.00364004       0.00157103
Fe       8.59285307       6.43948726       3.41389203       0.00028500      -0.00674695       0.00476582
Fe       7.86642424       6.43125149       8.35907909      -0.00664726      -0.00081923       0.00991125
Fe       8.65254112      11.01409373       3.42571023      -0.00066733      -0.00068347      -0.00191634
Fe       7.93828659      11.00076497       8.37040061       0.01553522       0.00034787      -0.00217266
Fe       7.70400768       4.16443196       4.03063901       0.00141433      -0.00490022      -0.00016159
Fe       7.04575095       4.16145846       8.99266667       0.00081758      -0.00016422      -0.00767474
Fe       7.77141864       8.72826080       4.03827740      -0.00625346      -0.00112606       0.00324123
Fe       7.09210507       8.72823898       8.99578243       0.00988936      -0.00646828       0.00760350
Fe       7.72454544      13.27719032       4.03404904      -0.00147786      -0.00328614      -0.00837385
Fe       7.03832472      13.26975821       8.99004871       0.00253796       0.00298427      -0.00128895
Fe       2.27926702       2.64168948       1.54634539      -0.00086074      -0.00141061       0.00899644
Fe       1.59834318       2.65680729       6.51188479      -0.00008529      -0.00726599      -0.00829897
Fe       2.14594982       7.07540868       1.51233747       0.02517860      -0.00641402      -0.03332665
Fe       1.51424430       7.22351219       6.54731848       0.00556688      -0.00167651      -0.01023570
Fe       2.26699862      11.70050790       1.53420381       0.00178953       0.01762778       0.00395210
Fe       1.60194252      11.71933122       6.51244774      -0.00284818       0.00407346       0.00007169
Fe       3.17027276       0.36439875       0.93407990       0.00492217       0.00056870      -0.00322570
Fe       2.48285011       0.37484420       5.89514104       0.00564224      -0.00707813      -0.00453055
Fe       3.19921368       4.89363135       0.90593559      -0.00849060       0.00093262       0.01240446
Fe       2.46333776       4.94944973       5.90104279       0.00333708      -0.01569005       0.00570656
Fe       3.34002656       9.46313421       0.99933753      -0.01504890      -0.01459944      -0.00726359
Fe       2.52384502       9.44544408       5.90632727      -0.00704571       0.00813037      -0.00675016
Fe       2.82387439       4.18495343       3.41002948      -0.00248628       0.00137654      -0.00090947
Fe       2.15800808       4.20555573       8.38825124       0.00088185      -0.02273413      -0.00625585
Fe       2.91051270       8.68220625       3.37538349      -0.00078843      -0.00271939       0.00376870
Fe       2.27841984       8.83072224       8.40914152      -0.01979154       0.00012850       0.04213308
Fe       2.82755123      13.24858341       3.41066587      -0.00051574       0.00599803       0.00864394
Fe       2.14625129      13.26342165       8.37560945      -0.00005226       0.00228022      -0.00597225
Fe       1.94092595       1.89897377       4.02625416      -0.00617488       0.00474530       0.00561706
Fe       1.25356315       1.90883770       8.98753184      -0.00460832       0.00251384       0.00202332
Fe       1.90157229       6.45968539       4.01527276       0.00996980      -0.01180905       0.01723826
Fe       1.08459617       6.44285451       8.92328472       0.01089769       0.02169988       0.01186571
Fe       1.96204391      10.95544712       4.02132212      -0.00386617       0.02308874      -0.00924434
Fe       1.22576184      11.01188370       9.01617840       0.01497227       0.00123194      -0.01202139
Fe      10.04254085       4.16512892       2.89941065      -0.00320234       0.00327711       0.00102879
Fe       9.34945000       4.15195195       7.84727187      -0.00147269      -0.00509598      -0.00032222
Fe      10.09754093       8.72287165       2.91197070       0.01027479       0.00563182      -0.01121319
Fe       9.41633332       8.71997455       7.85368244       0.01775849      -0.00186072       0.00426451
Fe      10.04525774      13.26823249       2.90137820       0.00242513      -0.00080140       0.00267880
Fe       9.36389970      13.27310926       7.85423857       0.00096957       0.00026524       0.00288693
Fe       6.30132364       1.90732144       4.54559292      -0.00375988       0.00251333      -0.00140392
Fe       5.61937399       1.90282313       9.50604782      -0.00018585      -0.00228258      -0.00031948
Fe       6.26925171       6.44863242       4.54541605      -0.01033467       0.00439183      -0.00682793
Fe       5.56598260       6.43770921       9.50294458      -0.00940191      -0.00083623       0.00163871
Fe       6.32961317      11.02171639       4.55521757       0.00225629       0.00101659      -0.00045247
Fe       5.59782082      11.00341610       9.50294682       0.00556821       0.00926665      -0.00214469
Fe      10.38912367       0.37274498       0.41841106       0.00137245       0.00061118      -0.00066787
Fe       9.70762283       0.36805403       5.37900717       0.00116597      -0.00307747       0.00020019
Fe      10.41262134       4.90349338       0.42278819      -0.00674182      -0.00557064       0.00452140
Fe       9.67943727       4.88540508       5.37038839       0.00174684      -0.00304705       0.00019379
Fe      10.44274212       9.46976995       0.42223393       0.00904289      -0.00758252      -0.00138940
Fe       9.74021913       9.45776552       5.38019111       0.01234067       0.00113021       0.00782249
Fe       6.64585105       2.63396275       2.07108810      -0.00011197      -0.00155945      -0.00166631
Fe       5.96523749       2.63836950       7.02415224      -0.00329829       0.00175797      -0.00272492
Fe       6.59224223       7.18696518       2.07155428      -0.01581311       0.00526078      -0.00571421
Fe       5.91219999       7.18396123       7.01362359      -0.00868538      -0.00477685       0.01116974
Fe       6.66049172      11.75487405       2.07798180       0.00172117       0.00592394      -0.00002011
Fe       5.96709408      11.74219459       7.02614773       0.00525104      -0.00760040       0.00126022
Fe      -0.50526426       1.97136654       3.71838727      -0.00153219       0.00973165       0.00701104
Fe      -1.19674322       1.97321434       8.67781133       0.00168651      -0.00624043      -0.00115816
Fe      -0.54505550       6.49987380       3.70469648       0.00432091      -0.00113513      -0.01940483
Fe      -1.31994748       6.50248718       8.66325620       0.00843886      -0.00535741      -0.00396886
Fe      -0.48499288      11.06067785       3.71624404      -0.00125126       0.00788577      -0.00197024
Fe      -1.21348882      11.10201939       8.66861475       0.00588600       0.00126208      -0.00333596
Fe      11.41793519       2.55524877       1.24121740       0.00187218      -0.00259299       0.00143838
Fe      10.73729410       2.54984776       6.19826242      -0.00535130      -0.00457314       0.00656975
Fe      11.32792197       7.12263040       1.23771638      -0.01348508      -0.00474433       0.00330221
Fe      10.66147168       7.04924203       6.14807846      -0.00832416      -0.00375246       0.00061524
Fe      11.40178959      11.67017694       1.25695409       0.01055019       0.00771360      -0.00018738
Fe      10.74641752      11.64247809       6.20077136       0.00725232      -0.00005814      -0.00048967
Fe       4.25590358       1.90866323       2.90004892       0.00531142      -0.00163908       0.00274367
Fe       3.57126563       1.91268859       7.85904170       0.00353244       0.00758435       0.00065705
Fe       4.20570766       6.45375954       2.89118360      -0.00270249       0.00093035      -0.00370538
Fe       3.50665706       6.45495729       7.85962652       0.00727397      -0.00259870       0.01217482
Fe       4.27167218      11.00488347       2.90712714       0.00764634       0.00595407      -0.00505818
Fe       3.57759685      11.01611952       7.85219430       0.01506653      -0.00359841      -0.00990339
Fe       0.49784201       4.17512633       4.54277137      -0.00434816       0.00417736      -0.01134112
Fe      -0.16465861       4.14214294       9.49708688       0.00520798      -0.01093642      -0.01088414
Fe       0.54763946       8.71277201       4.53741072      -0.01001867      -0.01308706      -0.00410420
Fe      -0.14443252       8.75818929       9.47185673       0.02541068      -0.01195039       0.01169446
Fe       0.50719810      13.25699731       4.53968911       0.00014221       0.00409115       0.00391992
Fe      -0.17571152      13.27247950       9.50254431      -0.00106654      -0.00386453       0.00437881
Fe       4.60103180       2.63286556       0.41963801       0.00119139       0.00301523      -0.00274544
Fe       3.91882457       2.64839589       5.38321013      -0.00059676      -0.00632057      -0.00902906
Fe       4.56758612       7.14799324       0.44971393      -0.00579487      -0.00138510      -0.00638266
Fe       3.87920066       7.19228446       5.38597836      -0.00033393       0.01044698      -0.00343397
Fe       4.59008518      11.76283245       0.42563927      -0.00527916       0.01596081       0.00624517
Fe       3.92799914      11.72958431       5.37980531       0.00040823       0.00191447       0.01046412
Fe       0.85251676       0.36034103       2.06234914      -0.00436164      -0.00199119       0.00024051
Fe       0.16776959       0.36511043       7.02157909      -0.00412935       0.00347413      -0.00502645
Fe       0.84817908       4.88967824       2.07056570      -0.01558316      -0.00269337       0.01079997
Fe       0.15412808       4.90050592       7.01517631      -0.01044440      -0.00723654       0.00637404
Fe       0.91774381       9.45073929       2.06221181      -0.00636401       0.00146658      -0.00838134
Fe       0.21823448       9.45183897       7.03111172       0.00603323      -0.00299043       0.00185968